<?xml version="1.0"?>
<VTKFile type="UnstructuredGrid"  version="0.1"  >
<UnstructuredGrid>
<Piece  NumberOfPoints="6288" NumberOfCells="12025">
<Points>
<DataArray  type="Float64"  NumberOfComponents="3"  format="ascii">-1.999755713881306 0.03125835566801607 0  -1.999755713881306 -0.03125835566801557 0  -1.997801782971423 -0.09374452493988013 0  -1.993895830307847 -0.1561390978614292 0  -1.988041672337552 -0.2183811096439194 0  -1.980245029069302 -0.2804097445637719 0  -1.970513518484718 -0.3421643953846998 0  -1.958856649094864 -0.4035847225761158 0  -1.945285810649626 -0.4646107132699657 0  -1.929814263008959 -0.5251827398983961 0  -1.912457123186881 -0.5852416184549397 0  -1.893231350580868 -0.6447286663223072 0  -1.872155730401083 -0.7035857596102886 0  -1.849250855315635 -0.761755389947713 0  -1.824539105329794 -0.8191807206730122 0  -1.798044625918829 -0.8758056423684527 0  -1.769793304435834 -0.9315748276837954 0  -1.739812744817581 -0.9864337853958145 0  -1.708132240613142 -1.040328913650836 0  -1.674782746361602 -1.093207552338297 0  -1.63979684734685 -1.145018034544143 0  -1.603208727758994 -1.195709737033778 0  -1.565054137293514 -1.245233129715258 0  -1.525370356220764 -1.293539824034397 0  -1.484196158960003 -1.340582620254483 0  -1.441571776193485 -1.386315553574423 0  -1.397538855557683 -1.430693939040255 0  -1.352140420950009 -1.473674415206131 0  -1.305420830490819 -1.515214986502133 0  -1.25742573318177 -1.555275064267504 0  -1.208202024302872 -1.593815506409208 0  -1.157797799591823 -1.630798655647083 0  -1.106262308250398 -1.666188376308183 0  -1.053645904823802 -1.699950089634408 0  -1.000000000000001 -1.732050807568877 0  -0.9453770103771312 -1.762459164988057 0  -0.8898303072480335 -1.791145450348148 0  -0.8334141644519737 -1.818081634715784 0  -0.7761837053444997 -1.843241399154675 0  -0.7181948489372492 -1.866600160441438 0  -0.659504255260333 -1.888135095085496 0  -0.6001692700006829 -1.907825161629558 0  -0.5402478684704438 -1.925651121208912 0  -0.4797985989601951 -1.941595556349425 0  -0.4188805255322898 -1.95564288798589 0  -0.3575531703102596 -1.967779390684099 0  -0.2958764553206605 -1.97799320605175 0  -0.2339106439441654 -1.986274354325108 0  -0.1717162820331323 -1.992614744120077 0  -0.1093541387531721 -1.997008180338166 0  -0.04688514720652093 -1.999450370219632 0  0.01562965510476777 -1.999938927537865 0  0.07812918591763715 -1.998473374930936 0  0.1405523778905864 -1.99505514436802 0  0.2028382382716241 -1.989687575750239 0  0.264925908493375 -1.982375913647298 0  0.3267547236370595 -1.973127302173093 0  0.3882642717072545 -1.961950778005308 0  0.4493944526595431 -1.948857261555815 0  0.5100855371233525 -1.933859546300501 0  0.5702782247626141 -1.916972286278965 0  0.6299137022172207 -1.89821198177627 0  0.6889337005686642 -1.877596963200773 0  0.7472805522737181 -1.855147373173756 0  0.8048972475105061 -1.830885146848379 0  0.8617274898819397 -1.804833990477177 0  0.9177157514220721 -1.777019358249038 0  0.972807326851623 -1.747468427418304 0  1.026948387029683 -1.716210071750289 0  1.080086031549351 -1.683274833309158 0  1.132168340425906 -1.648694892615747 0  1.183144424827045 -1.61250403720446 0  1.232964476795583 -1.574737628609984 0  1.281579817916051 -1.535432567816074 0  1.328942946877642 -1.494627259200155 0  1.375007585887011 -1.452361573008999 0  1.419728725885606 -1.408676806402105 0  1.463062670527339 -1.363615643100875 0  1.504967078873614 -1.317222111683 0  1.545401006764022 -1.269541542562805 0  1.584324946822258 -1.220620523699584 0  1.62170086705817 -1.170506855077227 0  1.657492248028243 -1.119249501999568 0  1.691664118518195 -1.066898547247141 0  1.724183089712812 -1.013505142142052 0  1.755017387819662 -0.959121456568797 0  1.784136885114773 -0.9038006279998687 0  1.811513129379981 -0.8475967095759319 0  1.83711937170316 -0.7905646172913299 0  1.860930592614173 -0.732760076336493 0  1.882923526531022 -0.674239566649702 0  1.903076684492291 -0.6150602677314072 0  1.92137037515368 -0.5552800027750013 0  1.937786724028127 -0.4949571821686575 0  1.95230969095069 -0.4341507464234287 0  1.964925085751152 -0.3729201085833638 0  1.975620582119019 -0.3113250961739352 0  1.984385729647371 -0.2494258927454667 0  1.991211964043796 -0.1872829790687008 0  1.996092615498432 -0.1249570740399643 0  1.999022915200932 -0.06250907535364923 0  2 0 0  1.999022915200932 0.06250907535364858 0  1.996092615498432 0.1249570740399653 0  1.991211964043796 0.1872829790687015 0  1.984385729647371 0.2494258927454655 0  1.975620582119019 0.3113250961739339 0  1.964925085751152 0.3729201085833623 0  1.952309690950691 0.4341507464234271 0  1.937786724028127 0.4949571821686574 0  1.92137037515368 0.5552800027750011 0  1.903076684492291 0.6150602677314069 0  1.882923526531023 0.6742395666497014 0  1.860930592614173 0.7327600763364923 0  1.83711937170316 0.7905646172913308 0  1.811513129379981 0.8475967095759326 0  1.784136885114773 0.9038006279998676 0  1.755017387819662 0.9591214565687958 0  1.724183089712813 1.01350514214205 0  1.691664118518195 1.066898547247141 0  1.657492248028243 1.119249501999568 0  1.62170086705817 1.170506855077226 0  1.584324946822259 1.220620523699584 0  1.545401006764023 1.269541542562804 0  1.504967078873613 1.317222111683001 0  1.463062670527338 1.363615643100875 0  1.419728725885607 1.408676806402104 0  1.375007585887012 1.452361573008998 0  1.328942946877644 1.494627259200154 0  1.281579817916052 1.535432567816073 0  1.232964476795583 1.574737628609984 0  1.183144424827045 1.61250403720446 0  1.132168340425906 1.648694892615747 0  1.080086031549351 1.683274833309158 0  1.026948387029684 1.716210071750289 0  0.9728073268516222 1.747468427418304 0  0.9177157514220714 1.777019358249038 0  0.8617274898819409 1.804833990477177 0  0.8048972475105074 1.830885146848379 0  0.7472805522737198 1.855147373173755 0  0.688933700568666 1.877596963200773 0  0.6299137022172207 1.89821198177627 0  0.5702782247626146 1.916972286278965 0  0.510085537123353 1.933859546300501 0  0.4493944526595436 1.948857261555815 0  0.3882642717072555 1.961950778005308 0  0.3267547236370604 1.973127302173093 0  0.2649259084933764 1.982375913647298 0  0.2028382382716232 1.989687575750239 0  0.140552377890586 1.99505514436802 0  0.07812918591763897 1.998473374930936 0  0.01562965510476782 1.999938927537865 0  -0.04688514720652089 1.999450370219632 0  -0.109354138753172 1.997008180338166 0  -0.1717162820331318 1.992614744120077 0  -0.2339106439441645 1.986274354325108 0  -0.29587645532066 1.97799320605175 0  -0.3575531703102586 1.967779390684099 0  -0.4188805255322885 1.95564288798589 0  -0.4797985989601954 1.941595556349425 0  -0.5402478684704443 1.925651121208912 0  -0.6001692700006811 1.907825161629558 0  -0.659504255260333 1.888135095085496 0  -0.7181948489372487 1.866600160441438 0  -0.7761837053444997 1.843241399154675 0  -0.8334141644519732 1.818081634715784 0  -0.8898303072480322 1.791145450348149 0  -0.9453770103771307 1.762459164988057 0  -0.9999999999999996 1.732050807568877 0  -1.053645904823801 1.699950089634408 0  -1.106262308250399 1.666188376308183 0  -1.157797799591823 1.630798655647083 0  -1.208202024302871 1.593815506409209 0  -1.257425733181769 1.555275064267504 0  -1.305420830490819 1.515214986502133 0  -1.352140420950009 1.473674415206131 0  -1.397538855557683 1.430693939040255 0  -1.441571776193484 1.386315553574424 0  -1.484196158960002 1.340582620254483 0  -1.525370356220764 1.293539824034398 0  -1.565054137293513 1.245233129715258 0  -1.603208727758995 1.195709737033778 0  -1.639796847346849 1.145018034544145 0  -1.674782746361601 1.093207552338299 0  -1.708132240613142 1.040328913650836 0  -1.73981274481758 0.9864337853958149 0  -1.769793304435833 0.9315748276837958 0  -1.798044625918829 0.8758056423684524 0  -1.824539105329793 0.8191807206730134 0  -1.849250855315635 0.7617553899477143 0  -1.872155730401083 0.7035857596102881 0  -1.893231350580868 0.6447286663223076 0  -1.912457123186882 0.5852416184549394 0  -1.929814263008959 0.5251827398983975 0  -1.945285810649626 0.4646107132699671 0  -1.958856649094864 0.4035847225761154 0  -1.970513518484718 0.3421643953847003 0  -1.980245029069302 0.2804097445637715 0  -1.988041672337552 0.2183811096439199 0  -1.993895830307847 0.1561390978614305 0  -1.997801782971423 0.09374452493987973 0  0.9980655971335943 0.06216963743148052 0  1 0 0  0.9980655971335943 -0.0621696374314802 0  0.9922698723632765 -0.1240987526132593 0  0.9826352482222637 -0.1855477538294935 0  0.969198999199666 -0.246278906832002 0  0.9520131075327298 -0.3060572545878874 0  0.9311440620976594 -0.3646515262826555 0  0.9066726011770726 -0.4218350320620621 0  0.8786934000992683 -0.4773865400511279 0  0.8473147049577773 -0.5310911322572754 0  0.8126579138282498 -0.5827410360463015 0  0.7748571071028897 -0.6321364279743266 0  0.7340585287594604 -0.6790862068658857 0  0.6904200205717462 -0.7234087331472503 0  0.6441104114503976 -0.7649325315746478 0  0.5953088642766656 -0.803496954638676 0  0.5442041827560273 -0.8389528040783012 0  0.490994080973322 -0.8711629080999506 0  0.4358844184753714 -0.9000026520685299 0  0.3790884038403785 -0.9253604606172419 0  0.3208257698153674 -0.9471382293110002 0  0.2613219232128601 -0.9652517041934358 0  0.2008070728557184 -0.9796308077490816 0  0.1395153389439227 -0.9902199100196695 0  0.07768384728900643 -0.9969780438256293 0  0.01555181192035077 -0.9998790632601495 0  -0.04664039038741795 -0.9989117448426108 0  -0.1086521500854744 -0.9940798309400526 0  -0.1702435557223987 -0.9854020152886813 0  -0.2311763221149701 -0.9729118706714374 0  -0.291214712227252 -0.9566577190314197 0  -0.3501264491913909 -0.9367024445236749 0  -0.4076836149416893 -0.9131232502286186 0  -0.4636635319853273 -0.8860113594683148 0  -0.5178496248983256 -0.8554716628811637 0  -0.5700322582137825 -0.8216223126204009 0  -0.6200095474607752 -0.7845942652463659 0  -0.6675881402161539 -0.744530775081015 0  -0.7125839641475068 -0.7015868399847768 0  -0.7548229
[...]
<PointData  Scalars="f_24"> 
<DataArray  type="Float64"  Name="f_24"  format="ascii">5.0009770847990680e+00  5.0009770847990680e+00  5.0087880359562043e+00  5.0243794178809811e+00  5.0476903090493090e+00  5.0786296248463199e+00  5.1170764734689778e+00  5.1628806282968398e+00  5.2158631148852264e+00  5.2758169102871859e+00  5.3425077519717572e+00  5.4156750531777416e+00  5.4950329211263869e+00  5.5802712741143923e+00  5.6710570531223556e+00  5.7670355232044175e+00  5.8678316595740938e+00  5.9730516129703153e+00  6.0822842485779294e+00  6.1951027524894915e+00  6.3110662994313333e+00  6.4297217752373879e+00  6.5506055473404565e+00  6.6732452763629402e+00  6.7971617617283755e+00  6.9218708140823590e+00  7.0468851472065213e+00  7.1717162820331319e+00  7.2958764553206592e+00  7.4188805255322885e+00  7.5402478684704413e+00  7.6595042552603338e+00  7.7761837053444998e+00  7.8898303072480314e+00  7.9999999999999982e+00  8.1062623082503968e+00  8.2082020243028708e+00  8.3054208304908173e+00  8.3975388555576842e+00  8.4841961589600015e+00  8.5650541372935134e+00  8.6397968473468474e+00  8.7081322406131410e+00  8.7697933044358329e+00  8.8245391053297926e+00  8.8721557304010812e+00  8.9124571231868810e+00  8.9452858106496258e+00  8.9705135184847187e+00  8.9880416723375518e+00  8.9978017829714219e+00  8.9997557138813065e+00  8.9938958303078476e+00  8.9802450290693017e+00  8.9588566490948640e+00  8.9298142630089608e+00  8.8932313505808676e+00  8.8492508553156348e+00  8.7980446259188305e+00  8.7398127448175806e+00  8.6747827463616023e+00  8.6032087277589948e+00  8.5253703562207672e+00  8.4415717761934879e+00  8.3521404209500112e+00  8.2574257331817726e+00  8.1577977995918225e+00  8.0536459048237994e+00  7.9453770103771317e+00  7.8334141644519732e+00  7.7181948489372498e+00  7.6001692700006815e+00  7.4797985989601958e+00  7.3575531703102612e+00  7.2339106439441672e+00  7.1093541387531749e+00  6.9843703448952343e+00  6.8594476221094123e+00  6.7350740915066218e+00  6.6117357282927456e+00  6.4899144628766479e+00  6.3700862977827795e+00  6.2527194477262809e+00  6.1382725101180586e+00  6.0271926731483809e+00  5.9199139684506505e+00  5.8168555751729576e+00  5.7184201820839462e+00  5.6249924141129872e+00  5.5369373294726634e+00  5.4545989932359777e+00  5.3782991329418302e+00  5.3083358814818054e+00  5.2449826121803369e+00  5.1884868706200207e+00  5.1390694073858283e+00  5.0969233155077109e+00  5.0622132759718736e+00  5.0350749142488480e+00  5.0156142703526294e+00  5.0039073845015682e+00  5.0000000000000000e+00  5.0039073845015682e+00  5.0156142703526303e+00  5.0350749142488480e+00  5.0622132759718719e+00  5.0969233155077092e+00  5.1390694073858256e+00  5.1884868706200180e+00  5.2449826121803369e+00  5.3083358814818054e+00  5.3782991329418302e+00  5.4545989932359769e+00  5.5369373294726616e+00  5.6249924141129881e+00  5.7184201820839480e+00  5.8168555751729549e+00  5.9199139684506479e+00  6.0271926731483774e+00  6.1382725101180595e+00  6.2527194477262800e+00  6.3700862977827786e+00  6.4899144628766470e+00  6.6117357282927447e+00  6.7350740915066236e+00  6.8594476221094141e+00  6.9843703448952326e+00  7.1093541387531713e+00  7.2339106439441654e+00  7.3575531703102595e+00  7.4797985989601958e+00  7.6001692700006815e+00  7.7181948489372489e+00  7.8334141644519732e+00  7.9453770103771308e+00  8.0536459048237994e+00  8.1577977995918243e+00  8.2574257331817691e+00  8.3521404209500094e+00  8.4415717761934843e+00  8.5253703562207654e+00  8.6032087277589948e+00  8.6747827463616005e+00  8.7398127448175806e+00  8.7980446259188287e+00  8.8492508553156348e+00  8.8932313505808693e+00  8.9298142630089590e+00  8.9588566490948640e+00  8.9802450290693017e+00  8.9938958303078476e+00  8.9997557138813065e+00  8.9978017829714219e+00  8.9880416723375518e+00  8.9705135184847187e+00  8.9452858106496276e+00  8.9124571231868810e+00  8.8721557304010830e+00  8.8245391053297944e+00  8.7697933044358347e+00  8.7081322406131427e+00  8.6397968473468492e+00  8.5650541372935134e+00  8.4841961589600032e+00  8.3975388555576842e+00  8.3054208304908190e+00  8.2082020243028726e+00  8.1062623082503986e+00  8.0000000000000000e+00  7.8898303072480331e+00  7.7761837053444989e+00  7.6595042552603338e+00  7.5402478684704439e+00  7.4188805255322894e+00  7.2958764553206601e+00  7.1717162820331311e+00  7.0468851472065221e+00  6.9218708140823635e+00  6.7971617617283764e+00  6.6732452763629402e+00  6.5506055473404574e+00  6.4297217752373861e+00  6.3110662994313360e+00  6.1951027524894942e+00  6.0822842485779276e+00  5.9730516129703171e+00  5.8678316595740938e+00  5.7670355232044175e+00  5.6710570531223574e+00  5.5802712741143949e+00  5.4950329211263860e+00  5.4156750531777416e+00  5.3425077519717563e+00  5.2758169102871877e+00  5.2158631148852281e+00  5.1628806282968407e+00  5.1170764734689769e+00  5.0786296248463190e+00  5.0476903090493099e+00  5.0243794178809811e+00  5.0087880359562043e+00  2.0038650638183615e+00  2.0000000000000000e+00  2.0038650638183615e+00  2.0154005004001667e+00  2.0344279689511704e+00  2.0606532999503662e+00  2.0936710430858749e+00  2.1329707356202703e+00  2.1779447942748007e+00  2.2278979086219874e+00  2.2820577907623152e+00  2.3395871150923169e+00  2.3995964635721410e+00  2.4611580763554968e+00  2.5233201951937092e+00  2.5851217778611995e+00  2.6456073561136266e+00  2.7038418074708446e+00  2.7589248124491625e+00  2.8100047737303875e+00  2.8562919820737540e+00  2.8970708254223769e+00  2.9317108524483322e+00  2.9596765194911181e+00  2.9805354701993623e+00  2.9939652198703781e+00  2.9997581411459944e+00  2.9978246739845091e+00  2.9881947102818032e+00  2.9710171317349943e+00  2.9465575080933957e+00  2.9151939913823988e+00  2.8774114695766282e+00  2.8337940701080768e+00  2.7850161291068911e+00  2.7318317659926636e+00  2.6750632245956956e+00  2.6155881610574845e+00  2.5543260750427370e+00  2.4922240940398250e+00  2.4302423305280381e+00  2.3693390383935697e+00  2.3104557980798099e+00  2.2545029595133390e+00  2.2023455678616668e+00  2.1547899897141263e+00  2.1125714464485550e+00  2.0763426475211113e+00  2.0466636994114635e+00  2.0239934462336353e+00  2.0086823758888683e+00  2.0009672014332027e+00  2.0009672014332027e+00  2.0086823758888683e+00  2.0239934462336349e+00  2.0466636994114635e+00  2.0763426475211113e+00  2.1125714464485550e+00  2.1547899897141267e+00  2.2023455678616672e+00  2.2545029595133390e+00  2.3104557980798104e+00  2.3693390383935702e+00  2.4302423305280385e+00  2.4922240940398246e+00  2.5543260750427370e+00  2.6155881610574854e+00  2.6750632245956956e+00  2.7318317659926636e+00  2.7850161291068916e+00  2.8337940701080768e+00  2.8774114695766286e+00  2.9151939913823988e+00  2.9465575080933961e+00  2.9710171317349943e+00  2.9881947102818032e+00  2.9978246739845091e+00  2.9997581411459944e+00  2.9939652198703781e+00  2.9805354701993623e+00  2.9596765194911181e+00  2.9317108524483317e+00  2.8970708254223765e+00  2.8562919820737536e+00  2.8100047737303875e+00  2.7589248124491625e+00  2.7038418074708446e+00  2.6456073561136257e+00  2.5851217778611995e+00  2.5233201951937083e+00  2.4611580763554968e+00  2.3995964635721410e+00  2.3395871150923160e+00  2.2820577907623143e+00  2.2278979086219861e+00  2.1779447942748011e+00  2.1329707356202698e+00  2.0936710430858749e+00  2.0606532999503653e+00  2.0344279689511700e+00  2.0154005004001667e+00  3.2486308370718935e+00  3.5473428551617547e+00  3.5472209708163547e+00  4.2954919658149358e+00  4.2849339394016699e+00  5.0817123602983534e+00  5.0687936004647236e+00  5.4884257241367251e+00  5.4883173000264387e+00  5.3057127006960503e+00  5.3048835395520983e+00  4.6313052070662293e+00  4.6315044717032636e+00  3.7973308231946916e+00  3.8197893878224747e+00  3.3009326283126255e+00  3.3331484372332620e+00  4.5531178846689393e+00  5.5491295832126450e+00  6.3529964595059063e+00  6.3311947013335317e+00  4.9236842218364618e+00  3.8642802068730111e+00  3.8636946686228701e+00  4.5483128499316923e+00  5.5687940882165883e+00  6.5477682900974470e+00  6.5223400651447010e+00  5.9704368575685143e+00  5.9704105802241436e+00  4.9754242222958647e+00  4.0872325284102287e+00  3.8032026182962877e+00  4.1773717362869434e+00  3.5995649039243149e+00  4.5364691586332748e+00  2.7941848087024614e+00  2.7943705218818309e+00  3.2326102162351762e+00  3.8700627572107473e+00  3.2239911253338898e+00  4.0966322847223138e+00  4.0960119159814106e+00  3.4807867049824064e+00  3.8521712074407692e+00  4.3302329387064047e+00  4.4344271998026032e+00  4.4205080885269465e+00  2.9103398120778468e+00  2.6919472759696230e+00  2.8545654265274973e+00  5.7462626476986030e+00  5.7406138219070133e+00  6.7227471131801222e+00  6.7232407904888376e+00  6.6095641035116435e+00  5.5867741157243076e+00  4.5314508530809290e+00  4.5469793941626575e+00  4.0493741530450471e+00  5.3212406844190170e+00  6.6250865341022900e+00  7.0464282776736935e+00  7.0921679759807024e+00  4.7193554894102610e+00  4.1306563866162076e+00  4.9161455550259552e+00  4.1605370509267887e+00  2.9624262440991509e+00  4.1116553815138763e+00  3.2811415494192877e+00  3.8443348374479669e+00  3.4983625127075002e+00  2.7653683702063545e+00  2.5534723479816908e+00  2.7744331293119608e+00  3.5105053028283768e+00  3.2731119304394234e+00  4.0027184359759449e+00  4.1357860556495476e+00  3.8487238487405637e+00  2.9818390084636799e+00  3.9649549842114018e+00  2.5741923028713387e+00  6.5279127814366387e+00  6.4807619433206076e+00  5.3841452518823294e+00  4.0622037180700508e+00  6.6038039362318726e+00  6.5256426763797881e+00  2.7442204221485924e+00  3.8081175399804099e+00  5.8925809186513627e+00  5.7029195934882129e+00  7.1945616048212573e+00  6.3417216301791761e+00  6.5790571732504857e+00  4.4511707525706337e+00  5.2734231462312007e+00  3.4465069946282316e+00  4.2375209175451785e+00  3.2312412571808213e+00  5.4609661041691870e+00  4.3492941686257094e+00  5.3845926848244696e+00  3.9577110761906091e+00  3.4038173834021981e+00  5.1189702171008848e+00  4.9641615664637433e+00  5.1188599738360514e+00  4.7465048208904257e+00  4.7996681023667511e+00  4.3595755301611661e+00  7.4611113145275940e+00  3.6650819824373291e+00  2.9718618363895715e+00  4.4178663124706103e+00  7.6138338701156796e+00  4.4962727756441065e+00  5.3960049904775875e+00  5.3020467853053086e+00  4.2977901329749564e+00  5.5901245101042365e+00  5.2406763796028324e+00  5.2308101353470375e+00  4.5514680794471154e+00  4.9201222681049757e+00  4.4768313088306977e+00  4.8822222870589718e+00  7.2777982833423254e+00  6.4137144665194157e+00  6.7286962802931827e+00  5.3905356903144312e+00  7.4855188741328211e+00  7.3204033968117654e+00  5.8676039537555038e+00  3.2655716859166075e+00  3.3113399793789253e+00  3.3581920596328776e+00  3.2085031720597441e+00  3.9753734253113686e+00  3.7984709391849441e+00  7.5241842651827699e+00  4.3746178955400641e+00  5.0688040212618626e+00  4.5798040529413395e+00  3.4615147183163288e+00  3.9842231412368325e+00  3.6875749231872130e+00  7.6261247535528698e+00  4.8012204264005138e+00  4.5868497775599684e+00  5.8001073767470821e+00  7.0476934626686720e+00  7.0484637964349037e+00  4.4535525486204737e+00  5.8980456411440212e+00  5.5461860451595255e+00  6.5502298289112257e+00  3.3183070705011346e+00  2.8261785385457943e+00  4.3729508370475640e+00  2.4453951261744171e+00  2.4456071076744825e+00  2.6698194633866601e+00  3.3615195811078746e+00  3.3551519994108605e+00  2.8615302653705026e+00  3.7295440297596612e+00  2.5770408289572200e+00  3.3501203114273523e+00  3.3371681263074460e+00  7.6682060278060176e+00  3.6685184543456848e+00  4.3628538935857932e+00  3.6766508994277913e+00  7.7164137483646584e+00  2.9000507536671911e+00  3.3703472505403909e+00  4.7251986178063676e+00  5.8379104155260535e+00  3.8446731537882775e+00  4.1499731338184880e+00  7.4900582186677713e+00  6.5369848725658963e+00  4.2922735671891603e+00  3.1378053160040404e+00  3.4807024286434696e+00  5.4650511426012898e+00  4.9714126353915447e+00  3.8650297836880068e+00  3.7618333491318396e+00  3.7548662947899478e+00  2.3714540147971093e+00  2.3472783663917420e+00  3.7223496557082383e+00  3.6244120675658436e+00  4.0557494559143104e+00  2.8219250192173262e+00  3.8867555151701736e+00  4.7886881512085093e+00  2.4822862862874238e+00  4.4936042404586019e+00  3.8552266074720838e+00  2.4248634871205352e+00  2.3608556093477886e+00  3.5921881368083906e+00  2.6357140084848858e+00  2.4412211083126665e+00  2.5755791185198689e+00  3.1133780954044945e+00  3.2450439805055602e+00  2.9686382909460884e+00  4.4915831289007038e+00  3.2474195735937492e+00  5.0624211864585167e+00  4.5841407251947119e+00  6.2031278210083070e+00  4.5651813927213531e+00  5.6182470972415288e+00  4.6610609376806122e+00  4.6172052928462053e+00  3.8962944389689032e+00  7.7145578009291231e+00  3.8524396070087237e+00  6.1376249394117979e+00  5.2755767469620514e+00  3.8979205321375994e+00  2.8994466754402861e+00  3.0706308553142438e+00  6.0691066372664491e+00  3.6509390552294838e+00  3.5622503649401862e+00  4.4745015916036772e+00  3.6754328619134031e+00  4.6103165812290241e+00  6.9651690531510955e+00  4.7913014304896571e+00  3.5781704052655607e+00  3.8174405141634011e+00  4.3689197266494402e+00  4.0335106857784977e+00  5.2858181293891118e+00  4.5662755152088828e+00  6.0230013519779142e+00  3.2167338115868516e+00  4.6391415537982343e+00  2.8942559790639995e+00  4.5710927734705189e+00  6.0669559857861035e+00  7.2836386538419102e+00  7.6201935963262155e+00  6.5628325320244665e+00  4.6892590568209238e+00  4.1387858173320664e+00  5.9942877644470824e+00  2.9572028991155546e+00  5.2181649835809178e+00  4.2946866157048813e+00  3.7817112344248169e+00  3.0986363299626283e+00  5.8048946096783904e+00  5.9655855858706133e+00  3.0798152888825436e+00  4.9724268445663080e+00  5.2202649980152493e+00  2.7036938861961111e+00  3.4708223902491673e+00  3.5354091587298333e+00  7.3377922588625415e+00  4.9632780702032084e+00  5.3491547965374711e+00  6.3670031951998123e+00  7.5351482266218603e+00  5.8122981274060335e+00  3.3987486961126847e+00  4.7876591440042295e+00  6.3670716127692621e+00  2.9817402340985661e+00  7.9961525202883328e+00  5.1328072229319845e+00  4.5340563736159494e+00  4.5093733954419228e+00  5.9170797150657748e+00  7.9486382338617849e+00  4.5199629408630333e+00  5.5642688844290937e+00  5.3345845073294740e+00  6.2710835828254901e+00  4.6571140214862936e+00  5.0091343198469689e+00  5.2931196291826890e+00  2.9224363811119689e+00  5.3053211746701985e+00  5.4618797436657118e+00  4.6143667426033375e+00  2.6152462818187172e+00  6.0650027781596645e+00  6.2936788552314891e+00  3.2839579907095122e+00  3.5342056813847291e+00  4.9049093099270040e+00  6.8408094321330237e+00  4.3107121839173663e+00  5.8326031909761014e+00  7.5106690805809659e+00  3.4193504303914706e+00  4.0134254260875180e+00  2.4522260344885303e+00  5.1811048845279526e+00  4.0481760004355065e+00  3.7360998677468871e+00  3.3513792153964403e+00  2.8351431478470350e+00  4.1859165742162512e+00  2.4263271168325988e+00  2.8212776038595844e+00  2.2658205140646133e+00  3.0140879593661083e+00  3.4309903168418749e+00  7.4587522583668449e+00  3.9404761317209713e+00  6.7164086530887701e+00  6.3995005050849105e+00  2.9414218537665073e+00  2.2969672963008207e+00  4.3166288785066724e+00  6.8348321310657649e+00  6.2404971254703208e+00  7.5569197866058975e+00  6.2402313947710457e+00  3.4004817883226481e+00  4.3168499533376634e+00  5.0524090234049082e+00  5.5818784463082523e+00  4.2421513291347583e+00  2.9944078320841196e+00  3.2080674092250492e+00  3.6155778912986469e+00  3.8268946695079360e+00  4.0193476713106682e+00  4.1721462569394943e+00  3.7871155610568423e+00  3.9551900110094045e+00  3.6453786141549616e+00  7.2911429038552331e+00  3.8020034382998080e+00  3.7384873354272998e+00  2.9736875002807479e+00  4.4418469811950168e+00  2.6470445086536598e+00  6.4915920814501114e+00  5.5248928514274755e+00  5.9040287043642126e+00  6.5872860170322385e+00  7.8312964945135990e+00  4.9133574940440354e+00  3.3560581806273322e+00  7.9254585170357803e+00  4.8679022485929773e+00  6.6151872151035320e+00  7.2967275177588427e+00  7.0503567847607904e+00  6.9286387345179969e+00  4.5821673525708047e+00  4.2988502555569248e+00  5.9488210357624105e+00  3.2114848412689416e+00  7.3051701568599343e+00  5.9634545016034917e+00  4.7579177437123681e+00  2.9325708265884312e+00  2.7391995320197879e+00  2.6110458711067617e+00  6.3743230642792401e+00  5.8846232027043133e+00  8.0699474592563440e+00  4.9725624476308479e+00  3.7221633137922185e+00  2.6059593268156283e+00  4.8496844302415782e+00  5.3890577270850217e+00  4.6846230700270137e+00  4.4548467982158604e+00  5.5067703829251169e+00  5.6467064230552069e+00  5.7081825640569068e+00  7.8989726758697341e+00  4.4455094028703428e+00  6.0499409070028367e+00  7.0601228826499733e+00  4.3537008556926500e+00  5.8313800178467483e+00  5.3438576225896366e+00  5.8548079175534165e+00  4.4716433256270722e+00  5.1338964822913340e+00  6.8485205623494991e+00  6.2585707920349165e+00  3.0338741087627192e+00  3.2194623116502674e+00  6.4645304138326019e+00  5.1623276829385318e+00  4.6718394228810869e+00  4.9041936316165211e+00  5.7441663707464565e+00  6.0593015798059913e+00  6.7636112746977766e+00  3.8542246313607933e+00  3.5556626724943796e+00  3.6488659925944713e+00  4.9960473735579560e+00  3.4587701036573995e+00  4.0974454445510160e+00  3.6548126605612148e+00  4.0522778247133848e+00  3.9722136758275322e+00  5.5034647378549284e+00  6.1805355722744819e+00  8.0671512350765582e+00  4.6597475327351150e+00  4.9616933784631607e+00  5.8810310647374378e+00  7.9759974170837014e+00  6.6079285859982972e+00  3.8237127117398995e+00  3.6530707495106740e+00  4.1172491352009555e+00  6.1563477939336240e+00  3.2623548303469252e+00  4.8789780226859181e+00  2.6983078511507208e+00  3.9492135533798631e+00  5.5360155642566742e+00  5.2374878628950796e+00  5.7005072879895069e+00  4.1463661098229716e+00  4.2342464350427429e+00  6.9545973601681377e+00  3.8026072802270048e+00  4.6038483999898077e+00  4.1364107338540821e+00  5.4828387844259590e+00  3.0684816767176426e+00  6.0331105862387719e+00  3.6265745579592639e+00  3.4372066667063952e+00  3.9839627523779511e+00  4.7111128640599427e+00  4.0857609110998832e+00  3.4413047802382759e+00  5.6486920392392381e+00  4.7392635351990178e+00  4.4188185154011617e+00  3.6794871140004637e+00  7.1197795416414520e+00  2.6839512416325659e+00  6.7280105799632119e+00  8.2285418902519503e+00  4.3913715491635346e+00  6.2764522515803840e+00  5.8493709278874260e+00  7.0016922624693869e+00  5.1870760243612972e+00  4.5160402278677809e+00  4.0486302840039965e+00  6.9826369319613359e+00  6.1308234561416803e+00  3.0552371073066982e+00  3.1809945904174284e+00  3.0243838204501441e+00  2.6471182223288925e+00  2.7120876724199565e+00  4.0068162409435981e+00  6.3331220951467397e+00  4.5340952861992854e+00  4.1933758472081273e+00  2.3547417427819610e+00  3.4513193569509344e+00  4.3699434909817754e+00  2.9157131802123377e+00  3.1170604121127106e+00  5.8997963572329564e+00  6.0652550191074086e+00  3.8930503849226934e+00  4.3554461267470392e+00  4.7697819676409239e+00  3.4106320052800037e+00  8.1451503873054456e+00  4.1637483647633360e+00  5.1514571193916252e+00  4.7156783306287231e+00  4.5706551398360347e+00  5.5480884371951031e+00  4.5647992587798782e+00  5.6651633688562653e+00  5.1075599373284968e+00  3.1792564490515165e+00  3.4883317853346933e+00  3.7990252165051945e+00  4.3096626334806238e+00  6.7617054593110844e+00  5.4633128724639421e+00  8.1570861771516618e+00  5.0838849844977805e+00  3.5161129004794964e+00  4.3627296747057196e+00  6.6227534078412180e+00  7.0456403873440863e+00  5.0998471061802286e+00  5.3231446210212976e+00  2.3436821861748012e+00  3.3950081879214813e+00  3.3410641951334741e+00  5.2951524708458217e+00  4.5723581528867330e+00  8.0612569246715431e+00  2.8953742061257417e+00  2.5503014014034409e+00  2.2547281946325586e+00  4.9850370621041940e+00  2.2448821720497847e+00  7.3129953185334724e+00  3.3720828207177034e+00  3.5270949158449123e+00  4.2114113239357964e+00  2.5412537959878745e+00  4.8875984783061872e